ITEM: TIMESTEP
0
ITEM: NUMBER OF ATOMS
684
ITEM: BOX BOUNDS pp pp pp
0.0000000000000000e+00 1.8000000000000000e+01
0.0000000000000000e+00 1.8000000000000000e+01
0.0000000000000000e+00 1.8000000000000000e+01
ITEM: ATOMS id type xu yu zu
1 1 -720.809 462.955 72.5843
2 1 -719.426 463.498 73.0705
3 2 -721.244 463.1 71.6365
4 2 -720.882 461.917 72.8023
5 2 -721.667 463.481 73.0631
6 1 -718.217 462.986 72.3
7 2 -719.309 464.596 72.8231
8 2 -719.405 463.299 74.052
9 1 -716.862 463.613 72.7661
10 2 -718.394 461.889 72.0789
11 2 -718.493 463.371 71.2544
12 1 -716.361 463.464 74.2606
13 2 -715.993 463.274 72.0748
14 2 -716.903 464.679 72.4692
15 1 -715.286 464.312 74.8859
16 2 -717.261 463.676 74.9214
17 2 -716.158 462.442 74.4072
18 1 -715.406 465.888 75.0311
19 2 -714.827 464.061 75.8383
20 2 -714.508 464.045 74.2248
21 1 -714.001 466.563 74.6902
22 2 -716.06 466.25 74.2291
23 2 -715.859 466.213 75.9009
24 1 -713.582 467.658 75.7194
25 2 -713.177 465.889 74.6676
26 2 -713.981 466.829 73.6642
27 1 -714.163 468.924 75.336
28 2 -713.823 467.321 76.7099
29 2 -712.578 467.893 75.8018
30 1 -713.675 469.628 74.0758
31 2 -715.315 468.845 75.2656
32 2 -714.152 469.649 76.2349
33 1 -712.252 470.091 74.263
34 2 -713.84 469.043 73.1959
35 2 -714.248 470.462 73.9575
36 2 -711.617 469.331 74.7005
37 2 -711.614 470.47 73.5199
38 2 -712.164 470.774 75.077
39 1 -244.285 -420.909 379.594
40 1 -245.604 -421.442 379.124
41 2 -244.402 -420.05 380.092
42 2 -244.023 -421.596 380.36
43 2 -243.528 -420.707 378.77
44 1 -245.989 -420.707 377.751
45 2 -245.644 -422.513 379.026
46 2 -246.371 -421.285 379.808
47 1 -245.341 -421.481 376.441
48 2 -247.079 -420.672 377.672
49 2 -245.735 -419.613 377.834
50 1 -243.952 -421.29 376.105
51 2 -245.39 -422.572 376.482
52 2 -245.931 -421.207 375.631
53 1 -243.625 -421.978 374.759
54 2 -243.651 -420.282 375.998
55 2 -243.315 -421.598 376.943
56 1 -242.174 -421.769 374.53
57 2 -243.761 -423.125 374.726
58 2 -244.295 -421.424 374.165
59 1 -241.315 -422.769 375.337
60 2 -241.84 -421.875 373.542
61 2 -241.921 -420.784 374.679
62 1 -239.922 -423.192 374.737
63 2 -240.994 -422.315 376.268
64 2 -241.814 -423.706 375.78
65 1 -240.003 -424.388 373.769
66 2 -239.432 -422.28 374.309
67 2 -239.327 -423.393 375.654
68 1 -238.872 -425.363 373.664
69 2 -240.87 -424.872 374.129
70 2 -240.113 -424.084 372.709
71 1 -238.452 -426.14 374.931
72 2 -239.23 -426.156 372.954
73 2 -237.916 -424.925 372.971
74 2 -238.364 -427.203 374.658
75 2 -237.438 -425.94 375.21
76 2 -238.952 -425.941 375.825
77 1 -132.298 330.157 -341.855
78 1 -132.413 331.635 -341.348
79 2 -131.198 329.962 -341.787
80 2 -132.682 329.476 -341.13
81 2 -132.743 329.93 -342.854
82 1 -131.485 331.862 -340.154
83 2 -132.349 332.482 -342.032
84 2 -133.543 331.652 -341.06
85 1 -131.529 333.308 -339.663
86 2 -131.968 331.21 -339.456
87 2 -130.405 331.569 -340.314
88 1 -132.998 333.885 -339.343
89 2 -130.827 333.396 -338.833
90 2 -131.119 333.823 -340.508
91 1 -132.923 335.302 -338.88
92 2 -133.613 333.776 -340.258
93 2 -133.55 333.102 -338.703
94 1 -132.134 336.353 -339.75
95 2 -133.917 335.791 -338.839
96 2 -132.422 335.034 -337.825
97 1 -132.707 336.517 -341.098
98 2 -131.954 337.266 -339.15
99 2 -131.121 335.859 -339.913
100 1 -131.739 336.965 -342.082
101 2 -133.094 335.546 -341.412
102 2 -133.531 337.22 -340.964
103 1 -130.378 336.33 -342.213
104 2 -132.306 336.898 -343
105 2 -131.562 338.047 -341.899
106 1 -129.675 336.666 -343.596
107 2 -129.646 336.675 -341.426
108 2 -130.455 335.27 -342.05
109 1 -130.192 335.841 -344.721
110 2 -129.944 337.714 -343.75
111 2 -128.682 336.658 -343.605
112 2 -129.726 336.22 -345.63
113 2 -129.852 334.874 -344.593
114 2 -131.241 335.93 -344.725
115 1 20.9261 -485.579 78.5091
116 1 19.6779 -484.685 78.1757
117 2 21.243 -486.104 77.6427
118 2 21.7828 -485.02 78.9644
119 2 20.677 -486.188 79.3202
120 1 20.101 -483.264 77.9077
121 2 19.2324 -485.04 77.2384
122 2 18.8051 -484.86 78.88
123 1 20.2276 -482.458 79.2166
124 2 21.2201 -483.451 77.6026
125 2 19.7041 -482.728 77.0349
126 1 19.2091 -481.322 79.3657
127 2 19.9986 -483.004 80.0634
128 2 21.2521 -481.95 79.2351
129 1 19.1366 -480.381 78.1647
130 2 18.3083 -481.884 79.4122
131 2 19.547 -480.707 80.3097
132 1 18.8983 -478.864 78.456
133 2 20.0738 -480.336 77.4628
134 2 18.2344 -480.746 77.6538
135 1 17.8922 -478.692 79.5103
136 2 19.8974 -478.391 78.8288
137 2 18.9133 -478.27 77.5634
138 1 17.847 -477.218 80.05
139 2 16.9242 -479.009 78.934
140 2 17.9544 -479.296 80.306
141 1 17.2255 -476.12 79.0679
142 2 17.2081 -477.231 80.9667
143 2 18.8454 -476.944 80.2399
144 1 15.7101 -476.366 78.773
145 2 17.192 -475.163 79.5538
146 2 17.8007 -476.044 78.0854
147 1 15.6499 -476.83 77.2682
148 2 15.4384 -477.158 79.4637
149 2 15.1729 -475.45 79.0494
150 2 15.8047 -477.914 77.0701
151 2 14.6295 -476.657 77.1017
152 2 16.0584 -476.134 76.5383
153 1 466.929 324.871 -230.89
154 1 465.738 323.88 -230.458
155 2 467.64 324.274 -231.533
156 2 466.557 325.523 -231.739
157 2 467.402 325.531 -230.157
158 1 465.05 323.322 -231.739
159 2 466.362 323.057 -230.124
160 2 465.12 323.935 -229.581
161 1 465.88 323.071 -233.072
162 2 464.727 322.422 -231.265
163 2 464.283 323.921 -231.981
164 1 465.15 322.224 -234.117
165 2 466.128 324.04 -233.446
166 2 466.844 322.462 -232.849
167 1 465.614 322.492 -235.554
168 2 465.529 321.233 -233.987
169 2 464.018 322.172 -233.953
170 1 464.853 323.605 -236.233
171 2 466.645 322.606 -235.56
172 2 465.503 321.515 -236.063
173 1 464.955 324.924 -235.588
174 2 465.273 323.803 -237.214
175 2 463.749 323.269 -236.323
176 1 466.167 325.745 -235.794
177 2 464.03 325.329 -235.975
178 2 464.799 325.041 -234.497
179 1 466.035 327.147 -235.186
180 2 467.035 325.18 -235.664
181 2 466.025 325.895 -236.881
182 1 467.095 328.213 -235.512
183 2 465.074 327.536 -235.322
184 2 465.873 327.067 -234.075
185 1 467.172 328.485 -236.924
186 2 466.939 329.199 -235.037
187 2 468.124 327.789 -235.217
188 2 467.414 327.63 -237.37
189 2 466.425 328.945 -237.508
190 2 468.019 329.183 -237.091
191 1 -276.623 52.5838 -13.8527
192 1 -277.45 52.4461 -15.1934
193 2 -276.083 51.7325 -13.4971
194 2 -275.884 53.4229 -13.7006
195 2 -277.377 52.7754 -13.1285
196 1 -276.82 53.0135 -16.4803
197 2 -277.792 51.5224 -15.4722
198 2 -278.439 53.1053 -15.0862
199 1 -277.302 54.3351 -17.1831
200 2 -275.752 53.03 -16.3131
201 2 -276.746 52.2802 -17.2156
202 1 -276.269 55.2453 -17.6994
203 2 -277.94 54.2371 -18.1295
204 2 -277.98 54.9173 -16.6024
205 1 -276.669 56.4715 -18.4914
206 2 -275.648 55.4914 -16.7993
207 2 -275.606 54.6154 -18.2637
208 1 -277.1 55.9745 -19.857
209 2 -277.462 56.9387 -17.8814
210 2 -275.846 57.1339 -18.596
211 1 -276.753 56.9143 -21.0554
212 2 -276.583 55.0418 -20.1491
213 2 -278.258 55.857 -19.812
214 1 -277.305 56.2363 -22.3644
215 2 -277.278 57.8134 -20.8402
216 2 -275.631 56.9932 -21.1208
217 1 -277.885 57.3348 -23.2323
218 2 -276.476 55.6099 -22.7846
219 2 -278.09 55.5313 -22.078
220 1 -277.912 56.9383 -24.7053
221 2 -278.747 57.6402 -22.6773
222 2 -277.291 58.2339 -23.089
223 1 -276.554 56.7178 -25.361
224 2 -278.45 56.035 -24.8995
225 2 -278.265 57.7511 -25.3855
226 2 -275.866 57.4574 -24.9727
227 2 -276.185 55.6954 -25.174
228 2 -276.649 56.8402 -26.4103
229 1 -295.566 78.5083 -259.514
230 1 -297.04 78.654 -259.11
231 2 -295.016 79.4602 -259.545
232 2 -294.921 77.9235 -258.858
233 2 -295.588 78.1534 -260.521
234 1 -297.329 78.9504 -257.632
235 2 -297.386 79.5217 -259.753
236 2 -297.478 77.7164 -259.486
237 1 -298.808 78.8945 -257.376
238 2 -296.823 78.1503 -257.118
239 2 -296.851 79.8214 -257.287
240 1 -299.747 79.7747 -258.125
241 2 -299.051 77.85 -257.423
242 2 -298.666 79.108 -256.277
243 1 -301.242 79.3791 -257.88
244 2 -299.511 80.8586 -257.957
245 2 -299.554 79.6539 -259.208
246 1 -302.068 79.4573 -259.193
247 2 -301.271 78.3248 -257.686
248 2 -301.571 80.1702 -257.216
249 1 -303.418 78.7798 -259.137
250 2 -302.288 80.461 -259.489
251 2 -301.449 78.9686 -259.986
252 1 -304.255 79.4336 -257.994
253 2 -303.813 78.9525 -260.049
254 2 -303.224 77.687 -259.216
255 1 -305.773 79.2434 -258.209
256 2 -303.995 78.941 -257.064
257 2 -304.061 80.4812 -257.765
258 1 -306.602 79.7576 -256.956
259 2 -305.964 79.9275 -259.08
260 2 -306.022 78.199 -258.495
261 1 -306.744 81.2977 -256.895
262 2 -307.613 79.3874 -256.93
263 2 -306.219 79.3977 -256.012
264 2 -307.469 81.6643 -256.059
265 2 -305.826 81.8946 -256.751
266 2 -307.146 81.7071 -257.879
267 1 -188.924 261.666 -191.429
268 1 -187.475 261.593 -190.857
269 2 -189.719 261.122 -190.988
270 2 -189.263 262.598 -191.126
271 2 -188.979 261.322 -192.469
272 1 -186.858 260.123 -190.989
273 2 -186.738 262.176 -191.37
274 2 -187.518 261.965 -189.84
275 1 -185.47 260.077 -190.291
276 2 -187.537 259.376 -190.609
277 2 -186.683 259.845 -192.009
278 1 -184.557 258.858 -190.624
279 2 -184.869 261.035 -190.369
280 2 -185.705 260.081 -189.249
281 1 -185.054 257.595 -189.906
282 2 -184.446 258.74 -191.821
283 2 -183.63 258.964 -190.272
284 1 -184.159 256.336 -190.027
285 2 -185.22 257.792 -188.868
286 2 -186.059 257.304 -190.231
287 1 -182.666 256.369 -189.63
288 2 -184.669 255.414 -189.627
289 2 -184.031 256.167 -191.093
290 1 -182.149 257.199 -188.371
291 2 -182.336 255.299 -189.628
292 2 -182.134 256.889 -190.43
293 1 -182.747 256.745 -187.088
294 2 -181.099 257.175 -188.282
295 2 -182.298 258.23 -188.528
296 1 -182.661 255.271 -186.566
297 2 -182.493 257.488 -186.415
298 2 -183.756 256.766 -187.301
299 1 -183.317 255.005 -185.201
300 2 -183.094 254.576 -187.258
301 2 -181.57 255.076 -186.43
302 2 -184.405 255.165 -185.155
303 2 -183.072 253.992 -185.069
304 2 -182.905 255.596 -184.444
305 1 -968.105 -49.3888 122.046
306 1 -968.99 -50.5425 121.802
307 2 -968.699 -48.4706 122.023
308 2 -967.623 -49.3328 123.02
309 2 -967.236 -49.3842 121.323
310 1 -969.64 -50.6839 120.421
311 2 -968.425 -51.5055 121.999
312 2 -969.807 -50.5411 122.572
313 1 -970.647 -51.6918 120.297
314 2 -970.246 -49.8267 120.285
315 2 -968.906 -50.7571 119.67
316 1 -971.1 -52.1006 118.886
317 2 -970.304 -52.6105 120.648
318 2 -971.438 -51.4446 120.957
319 1 -972.007 -53.2516 118.841
320 2 -971.504 -51.1843 118.468
321 2 -970.258 -52.4533 118.231
322 1 -972.377 -53.642 117.392
323 2 -971.572 -54.1763 119.197
324 2 -972.88 -52.937 119.418
325 1 -973.812 -54.2839 117.308
326 2 -972.301 -52.8061 116.775
327 2 -971.717 -54.3277 116.911
328 1 -974.242 -54.3423 115.834
329 2 -973.982 -55.245 117.895
330 2 -974.441 -53.4582 117.822
331 1 -975.741 -54.6453 115.66
332 2 -974.168 -53.4493 115.342
333 2 -973.53 -54.8459 115.226
334 1 -976.778 -53.5111 116.043
335 2 -975.843 -54.832 114.585
336 2 -976.02 -55.6492 116.145
337 1 -978.257 -54.0371 115.93
338 2 -976.588 -53.1727 117.054
339 2 -976.496 -52.553 115.518
340 2 -978.319 -54.7125 115.089
341 2 -978.627 -54.4801 116.888
342 2 -978.931 -53.2091 115.676
343 1 421.697 13.3228 -300.895
344 1 422.781 13.5063 -299.873
345 2 421.548 14.1865 -301.451
346 2 422.178 12.6413 -301.644
347 2 420.707 13.0124 -300.494
348 1 422.109 14.1873 -298.637
349 2 423.275 12.5679 -299.566
350 2 423.569 14.1117 -300.22
351 1 423.145 14.7287 -297.629
352 2 421.365 14.9267 -298.718
353 2 421.38 13.4419 -298.27
354 1 422.554 15.8119 -296.679
355 2 423.578 13.9318 -296.989
356 2 423.901 15.2739 -298.19
357 1 423.328 16.1206 -295.259
358 2 422.295 16.6959 -297.233
359 2 421.646 15.3509 -296.474
360 1 422.627 17.085 -294.421
361 2 423.572 15.1803 -294.791
362 2 424.364 16.4797 -295.601
363 1 421.219 16.6775 -294.042
364 2 423.324 17.4161 -293.727
365 2 422.611 17.931 -295.081
366 1 420.657 17.8035 -293.253
367 2 420.528 16.3426 -294.813
368 2 421.188 15.6934 -293.406
369 1 419.797 18.6943 -294.093
370 2 420.227 17.4604 -292.329
371 2 421.568 18.2734 -292.899
372 1 418.341 18.271 -294.053
373 2 419.821 19.6686 -293.57
374 2 420.129 18.793 -295.157
375 1 417.993 16.977 -294.63
376 2 418.065 18.1183 -292.97
377 2 417.864 19.0782 -294.516
378 2 418.374 16.9852 -295.582
379 2 418.214 16.0807 -293.988
380 2 416.861 16.9451 -294.516
381 1 232.069 -62.644 196.801
382 1 231.731 -63.1637 198.266
383 2 231.273 -62.9445 196.171
384 2 232.18 -61.5802 196.942
385 2 232.97 -63.0317 196.41
386 1 232.844 -63.5398 199.222
387 2 231.035 -62.5422 198.821
388 2 231.195 -64.0181 198.111
389 1 233.783 -62.5627 199.835
390 2 232.408 -63.9749 200.127
391 2 233.296 -64.3678 198.748
392 1 234.774 -63.1788 200.905
393 2 234.286 -62.0674 199.025
394 2 233.241 -61.7717 200.367
395 1 235.634 -62.0603 201.415
396 2 234.213 -63.8035 201.671
397 2 235.307 -64.1027 200.484
398 1 236.741 -62.4079 202.331
399 2 236.134 -61.565 200.716
400 2 235.028 -61.4769 202.13
401 1 237.178 -61.1338 203.076
402 2 236.638 -63.3128 203.097
403 2 237.652 -62.7923 201.773
404 1 238.445 -61.6031 203.85
405 2 237.255 -60.2313 202.528
406 2 236.329 -60.9257 203.775
407 1 238.214 -62.2842 205.267
408 2 239.182 -62.2048 203.219
409 2 239.255 -60.82 204.128
410 1 239.511 -63.1096 205.689
411 2 238.135 -61.4213 205.975
412 2 237.277 -62.8989 205.187
413 1 240.368 -62.4893 206.747
414 2 239.258 -64.1285 205.92
415 2 239.955 -63.2644 204.796
416 2 240.101 -62.7493 207.766
417 2 241.413 -62.7742 206.75
418 2 240.469 -61.4491 206.505
419 1 -265.193 194.613 -93.3076
420 1 -263.938 194.411 -92.5343
421 2 -265.452 195.658 -93.2835
422 2 -265.018 194.311 -94.2954
423 2 -265.932 193.884 -92.9007
424 1 -263.623 195.342 -91.4568
425 2 -263.81 193.356 -92.32
426 2 -263.201 194.551 -93.3233
427 1 -262.284 195.077 -90.6858
428 2 -263.658 196.329 -91.9759
429 2 -264.428 195.168 -90.6975
430 1 -260.836 194.882 -91.3976
431 2 -262.144 195.955 -90.0619
432 2 -262.438 194.116 -90.2035
433 1 -260.346 196.03 -92.1871
434 2 -259.947 194.783 -90.6914
435 2 -260.946 193.959 -91.8409
436 1 -259.823 195.609 -93.6213
437 2 -261.227 196.704 -92.3411
438 2 -259.455 196.644 -91.7033
439 1 -258.992 194.238 -93.374
440 2 -260.762 195.563 -94.1418
441 2 -259.223 196.308 -94.1513
442 1 -258.068 193.975 -94.6266
443 2 -258.293 194.376 -92.681
444 2 -259.724 193.419 -93.2306
445 1 -256.674 194.668 -94.6822
446 2 -257.74 192.884 -94.8141
447 2 -258.777 194.253 -95.4237
448 1 -256.561 196.105 -95.2642
449 2 -256.272 194.852 -93.7046
450 2 -255.902 193.978 -94.9849
451 1 -256.891 196.256 -96.7799
452 2 -257.109 196.734 -94.6304
453 2 -255.547 196.66 -95.307
454 2 -256.085 196.045 -97.4805
455 2 -257.745 195.721 -97.0714
456 2 -257.079 197.341 -96.9621
457 1 93.8969 159.645 314.016
458 1 93.4586 158.476 313.034
459 2 94.7543 159.433 314.668
460 2 94.206 160.5 313.347
461 2 93.0988 160.001 314.646
462 1 92.2132 158.695 312.152
463 2 94.2366 158.036 312.412
464 2 93.3004 157.586 313.669
465 1 91.1021 159.004 313.107
466 2 92.2723 159.472 311.332
467 2 92.0041 157.742 311.77
468 1 89.7209 158.942 312.488
469 2 91.1595 158.148 313.913
470 2 91.2617 160.006 313.456
471 1 89.3056 157.615 311.859
472 2 89.0209 159.06 313.383
473 2 89.7205 159.804 311.81
474 1 88.8531 157.567 310.359
475 2 90.2205 157.003 311.967
476 2 88.737 156.924 312.558
477 1 87.3274 157.698 310.124
478 2 89.2731 158.592 310.07
479 2 89.3943 156.788 309.945
480 1 86.2928 157.147 311.173
481 2 87.1589 158.791 310.234
482 2 87.0164 157.613 309.116
483 1 85.9477 158.183 312.261
484 2 85.5399 156.982 310.444
485 2 86.6116 156.21 311.63
486 1 84.6375 158.053 312.924
487 2 86.6951 158.356 312.96
488 2 85.7868 159.148 311.778
489 1 84.8526 156.961 314.014
490 2 83.9896 158.842 313.181
491 2 84.0395 157.556 312.19
492 2 83.9268 156.649 314.481
493 2 85.3484 156.067 313.596
494 2 85.3997 157.387 314.79
495 1 -138.578 93.691 153.725
496 1 -137.055 93.6367 153.675
497 2 -138.889 93.7085 154.794
498 2 -139.147 94.5492 153.347
499 2 -138.934 92.7561 153.354
500 1 -136.569 92.8891 152.37
501 2 -136.824 94.6817 153.573
502 2 -136.517 93.3017 154.552
503 1 -135.226 93.3803 151.845
504 2 -136.56 91.8195 152.561
505 2 -137.287 93.0475 151.641
506 1 -134.767 92.6696 150.578
507 2 -135.162 94.5132 151.734
508 2 -134.481 93.0217 152.54
509 1 -133.271 92.9884 150.132
510 2 -135.023 91.5557 150.612
511 2 -135.238 93.1115 149.664
512 1 -133.007 92.1768 148.955
513 2 -133.119 93.9954 149.766
514 2 -132.754 92.8771 151.11
515 1 -131.57 92.3666 148.505
516 2 -133.216 91.0776 149.123
517 2 -133.717 92.453 148.163
518 1 -131.542 93.6427 147.564
519 2 -130.938 92.4731 149.427
520 2 -131.388 91.594 147.769
521 1 -130.12 93.9677 146.983
522 2 -132.121 93.2303 146.777
523 2 -132.072 94.5861 147.809
524 1 -129.252 94.7755 148.002
525 2 -129.641 93.0818 146.585
526 2 -130.231 94.6531 146.14
527 1 -128.38 95.9804 147.616
528 2 -129.863 95.1453 148.825
529 2 -128.488 94.0491 148.392
530 2 -128.117 95.9671 146.629
531 2 -128.879 96.8848 147.698
532 2 -127.489 96.0437 148.352
533 1 -119.218 19.2833 -92.1839
534 1 -119.064 20.53 -91.2432
535 2 -118.137 19.0899 -92.499
536 2 -119.437 18.415 -91.5477
537 2 -119.926 19.2893 -92.9903
538 1 -118.756 21.6293 -92.176
539 2 -119.865 20.6408 -90.6959
540 2 -118.255 20.6196 -90.5816
541 1 -118.13 22.9836 -91.6469
542 2 -117.901 21.3836 -92.8203
543 2 -119.704 21.8855 -92.6853
544 1 -118.935 23.7116 -90.6211
545 2 -117.279 22.8584 -90.999
546 2 -117.997 23.5482 -92.4824
547 1 -118.15 24.832 -89.9227
548 2 -119.785 24.0727 -91.1107
549 2 -119.249 23.0418 -89.9039
550 1 -118.228 24.9078 -88.4045
551 2 -117.03 24.6511 -90.0645
552 2 -118.443 25.7651 -90.3586
553 1 -117.669 23.7236 -87.4787
554 2 -117.687 25.8831 -88.1726
555 2 -119.268 24.9584 -88.1117
556 1 -117.225 23.9812 -86.0206
557 2 -118.432 23.025 -87.5538
558 2 -116.863 23.2125 -88.0496
559 1 -118.3 24.4498 -84.9685
560 2 -116.876 22.9821 -85.8548
561 2 -116.374 24.6285 -85.9434
562 1 -119.706 23.7633 -85.0894
563 2 -117.988 24.2008 -83.954
564 2 -118.284 25.4724 -84.7592
565 1 -120.592 23.971 -83.9049
566 2 -120.325 24.0931 -85.9464
567 2 -119.574 22.6596 -85.2099
568 2 -119.853 23.6692 -83.1082
569 2 -120.91 24.996 -83.8494
570 2 -121.45 23.2513 -83.886
571 1 -213.074 281.277 177.323
572 1 -212.955 279.727 177.019
573 2 -212.378 281.664 178.075
574 2 -212.705 281.666 176.43
575 2 -214.003 281.616 177.601
576 1 -212.968 278.86 178.323
577 2 -213.777 279.392 176.359
578 2 -211.962 279.561 176.625
579 1 -212.849 277.313 178.12
580 2 -212.183 279.446 178.885
581 2 -213.949 278.84 178.859
582 1 -213.116 276.637 179.549
583 2 -213.734 277.021 177.472
584 2 -211.937 277.046 177.529
585 1 -212.133 276.904 180.606
586 2 -214.178 276.76 179.798
587 2 -213.258 275.516 179.407
588 1 -212.408 276.145 181.916
589 2 -211.137 276.913 180.191
590 2 -212.214 277.911 180.905
591 1 -211.75 274.778 181.88
592 2 -212.227 276.78 182.764
593 2 -213.493 276.161 182.049
594 1 -212.259 273.903 183.02
595 2 -211.64 274.373 180.842
596 2 -210.714 274.957 182.096
597 1 -213.287 272.902 182.503
598 2 -211.451 273.443 183.538
599 2 -212.639 274.535 183.761
600 1 -214.565 273.518 181.891
601 2 -212.873 272.174 181.809
602 2 -213.7 272.194 183.293
603 1 -215.684 274.212 182.762
604 2 -214.433 274.123 181.067
605 2 -215.078 272.579 181.37
606 2 -215.877 273.695 183.689
607 2 -215.194 275.094 183.179
608 2 -216.642 274.368 182.231
609 1 -357.793 406.893 -61.6611
610 1 -356.5 407.364 -60.9515
611 2 -357.68 406.858 -62.7363
612 2 -358.297 406.082 -61.29
613 2 -358.537 407.578 -61.3949
614 1 -355.982 408.706 -61.5189
615 2 -356.799 407.48 -59.8999
616 2 -355.798 406.436 -61.0817
617 1 -354.505 409.058 -61.1534
618 2 -355.843 408.575 -62.6777
619 2 -356.776 409.448 -61.4593
620 1 -353.74 408.005 -60.2842
621 2 -354.024 409.296 -62.1276
622 2 -354.542 410.052 -60.6718
623 1 -352.217 408.343 -60.0766
624 2 -354.157 408.028 -59.3101
625 2 -353.619 407.014 -60.6509
626 1 -351.349 407.392 -60.9121
627 2 -352.017 409.407 -59.9572
628 2 -352.146 408.225 -59.0429
629 1 -349.781 407.719 -60.5954
630 2 -351.749 406.411 -60.6894
631 2 -351.633 407.634 -61.9249
632 1 -348.692 406.83 -61.2247
633 2 -349.473 408.633 -60.993
634 2 -349.57 407.936 -59.5604
635 1 -347.264 407.138 -60.5826
636 2 -348.862 405.761 -60.8944
637 2 -348.406 406.945 -62.3333
638 1 -346.163 406.29 -61.3209
639 2 -347.042 408.234 -60.8227
640 2 -347.156 406.919 -59.5071
641 1 -345.924 404.886 -60.7452
642 2 -346.301 406.317 -62.3456
643 2 -345.32 406.9 -61.2103
644 2 -346.789 404.327 -60.8812
645 2 -345.153 404.424 -61.3002
646 2 -345.654 404.952 -59.6965
647 1 -429.766 71.742 127.129
648 1 -428.951 72.2369 125.884
649 2 -429.718 70.6599 127.346
650 2 -429.703 72.2889 127.952
651 2 -430.789 71.7474 126.806
652 1 -428.983 71.2579 124.583
653 2 -429.13 73.2052 125.535
654 2 -427.917 72.1803 126.192
655 1 -430.449 70.9407 124.254
656 2 -428.46 71.7472 123.803
657 2 -428.458 70.4179 125.002
658 1 -430.217 70.4601 122.809
659 2 -431.048 70.1345 124.696
660 2 -430.931 71.9548 124.11
661 1 -431.47 70.6487 121.859
662 2 -429.553 71.1454 122.193
663 2 -429.964 69.3285 122.761
664 1 -431.536 69.4496 120.67
665 2 -432.394 70.4458 122.345
666 2 -431.569 71.6402 121.483
667 1 -432.206 68.1661 121.248
668 2 -431.958 69.8442 119.768
669 2 -430.494 69.1647 120.334
670 1 -431.984 66.9087 120.354
671 2 -431.899 67.6918 122.197
672 2 -433.211 68.469 121.531
673 1 -433.302 66.3988 119.885
674 2 -431.451 67.3973 119.54
675 2 -431.353 66.1029 120.757
676 1 -433.96 67.2783 118.912
677 2 -433.283 65.489 119.337
678 2 -433.942 66.2272 120.673
679 1 -433.253 67.4361 117.571
680 2 -435.016 67.0097 118.984
681 2 -433.991 68.2342 119.207
682 2 -433.862 67.7052 116.782
683 2 -432.361 68.0938 117.547
684 2 -432.716 66.4621 117.331
ITEM: TIMESTEP
1000
ITEM: NUMBER OF ATOMS
684
ITEM: BOX BOUNDS pp pp pp
0.0000000000000000e+00 1.8000000000000000e+01
0.0000000000000000e+00 1.8000000000000000e+01
0.0000000000000000e+00 1.8000000000000000e+01
ITEM: ATOMS id type xu yu zu
1 1 -720.959 463.531 71.921
2 1 -719.665 463.59 72.8576
3 2 -721.086 464.589 71.6279
4 2 -720.822 462.74 71.1643
5 2 -721.814 463.274 72.617
6 1 -718.509 464.071 72.1129
7 2 -719.898 464.364 73.6091
8 2 -719.426 462.636 73.4009
9 1 -717.412 464.731 72.9706
10 2 -718.148 463.176 71.4318
11 2 -718.93 464.751 71.3183
12 1 -716.273 463.765 73.651
13 2 -716.861 465.503 72.4145
14 2 -718.004 465.283 73.7949
15 1 -714.781 464.554 73.6998
16 2 -716.509 463.103 74.5009
17 2 -716.134 462.858 73.0301
18 1 -715.128 465.952 74.2176
19 2 -714.114 464.081 74.4496
20 2 -714.284 464.642 72.7994
21 1 -713.799 466.714 74.4384
22 2 -715.808 466.322 73.3818
23 2 -715.746 466.058 75.0948
24 1 -713.861 467.819 75.5901
25 2 -713.046 465.971 74.8696
26 2 -713.274 467.014 73.5134
27 1 -714.393 469.21 75.0519
28 2 -714.528 467.536 76.45
29 2 -712.838 467.926 76.0747
30 1 -713.466 469.897 74.1113
31 2 -715.441 469.138 74.6201
32 2 -714.7 469.969 75.8526
33 1 -712.089 470.277 74.8268
34 2 -713.172 469.18 73.2821
35 2 -713.901 470.821 73.6707
36 2 -711.742 469.831 75.8425
37 2 -711.203 470.305 74.0941
38 2 -712.244 471.358 75.1023
39 1 -244.748 -421.165 380.568
40 1 -245.588 -421.486 379.298
41 2 -244.228 -420.133 380.515
42 2 -245.44 -421.386 381.391
43 2 -243.891 -421.894 380.701
44 1 -245.596 -420.542 378.133
45 2 -245.625 -422.606 378.867
46 2 -246.624 -421.408 379.729
47 1 -245.527 -421.142 376.71
48 2 -246.512 -419.916 378.172
49 2 -244.669 -419.899 378.22
50 1 -243.956 -421.543 376.303
51 2 -246.124 -422.101 376.659
52 2 -245.922 -420.414 375.992
53 1 -243.611 -422.341 375.049
54 2 -243.511 -420.483 376.236
55 2 -243.535 -422.108 377.161
56 1 -242.185 -421.908 374.765
57 2 -243.679 -423.426 375.098
58 2 -244.35 -422.137 374.231
59 1 -241.356 -422.816 375.838
60 2 -241.974 -422.298 373.738
61 2 -242.064 -420.855 374.841
62 1 -240.015 -423.422 375.509
63 2 -241.138 -422.226 376.739
64 2 -241.978 -423.705 376.147
65 1 -240.276 -424.762 374.805
66 2 -239.366 -422.766 374.866
67 2 -239.419 -423.741 376.427
68 1 -238.875 -425.39 374.368
69 2 -240.955 -425.551 375.366
70 2 -240.891 -424.587 373.909
71 1 -238.002 -425.941 375.642
72 2 -239.042 -426.273 373.747
73 2 -238.247 -424.603 373.793
74 2 -237.793 -425.143 376.283
75 2 -238.739 -426.505 376.284
76 2 -237.04 -426.473 375.293
77 1 -132.388 329.983 -341.313
78 1 -132.35 331.522 -340.889
79 2 -131.428 329.616 -341.519
80 2 -132.711 329.558 -340.323
81 2 -133.123 329.796 -342.168
82 1 -131.429 331.811 -339.752
83 2 -132.101 332.249 -341.681
84 2 -133.316 331.986 -340.714
85 1 -131.428 333.292 -339.163
86 2 -131.621 331.136 -338.935
87 2 -130.397 331.651 -340.038
88 1 -132.93 333.889 -339.124
89 2 -131.136 333.217 -338.078
90 2 -130.788 333.96 -339.844
91 1 -133.059 335.474 -338.702
92 2 -133.319 333.863 -340.134
93 2 -133.635 333.302 -338.681
94 1 -132.337 336.393 -339.648
95 2 -134.137 335.869 -338.636
96 2 -132.576 335.681 -337.638
97 1 -132.952 336.528 -341.078
98 2 -132.326 337.402 -339.181
99 2 -131.195 336.121 -339.735
100 1 -131.887 337.24 -342.089
101 2 -133.52 335.592 -341.522
102 2 -133.986 337.041 -340.953
103 1 -130.508 336.576 -342.166
104 2 -132.271 337.182 -343.129
105 2 -131.811 338.351 -341.764
106 1 -129.845 336.352 -343.56
107 2 -129.734 337.091 -341.552
108 2 -130.587 335.523 -341.785
109 1 -130.56 335.437 -344.554
110 2 -129.535 337.404 -344.107
111 2 -128.852 335.928 -343.385
112 2 -130.032 335.423 -345.513
113 2 -130.683 334.485 -344.058
114 2 -131.536 335.879 -344.807
115 1 20.8616 -485.792 78.3662
116 1 19.824 -485.014 77.3889
117 2 20.2614 -485.962 79.294
118 2 21.1957 -486.795 77.9026
119 2 21.7767 -485.207 78.6667
120 1 18.9225 -483.785 78.0157
121 2 20.5309 -484.627 76.6025
122 2 19.1486 -485.724 76.8775
123 1 19.8627 -483.01 78.8367
124 2 18.3965 -483.187 77.2165
125 2 18.155 -484.246 78.6055
126 1 19.2718 -481.582 79.3982
127 2 20.0509 -483.608 79.7268
128 2 20.8312 -482.934 78.3263
129 1 18.9288 -480.448 78.3549
130 2 18.3622 -481.85 79.9257
131 2 19.8801 -481.083 80.212
132 1 18.7688 -479.074 78.9413
133 2 19.6487 -480.513 77.5398
134 2 17.9453 -480.697 77.8167
135 1 17.4524 -478.851 79.6663
136 2 19.5923 -478.764 79.5763
137 2 19.0257 -478.287 78.086
138 1 17.6543 -477.351 80.4126
139 2 16.6161 -479.069 79.0333
140 2 17.3146 -479.552 80.5004
141 1 17.5329 -476.108 79.5012
142 2 16.878 -477.187 81.2402
143 2 18.5883 -477.254 81.0251
144 1 16.0401 -475.895 79.1842
145 2 18.0541 -475.211 79.9268
146 2 18.1455 -476.3 78.6309
147 1 15.6829 -476.47 77.6863
148 2 15.3539 -476.308 79.9539
149 2 15.6603 -474.883 79.3544
150 2 15.4124 -475.684 76.9947
151 2 16.3388 -477.132 77.1026
152 2 14.8428 -477.144 77.7247
153 1 466.012 324.955 -230.466
154 1 465.713 323.358 -230.608
155 2 465.68 325.428 -231.415
156 2 465.447 325.518 -229.69
157 2 467.139 325.152 -230.339
158 1 464.704 322.852 -231.711
159 2 466.698 322.897 -230.774
160 2 465.438 322.957 -229.696
161 1 465.172 323.321 -233.055
162 2 464.57 321.771 -231.549
163 2 463.662 323.281 -231.63
164 1 464.428 322.59 -234.208
165 2 465.108 324.384 -233.122
166 2 466.277 323.069 -232.99
167 1 465.216 322.765 -235.588
168 2 464.18 321.554 -234.094
169 2 463.328 322.828 -234.375
170 1 464.682 323.805 -236.521
171 2 466.321 322.984 -235.502
172 2 465.372 321.746 -236.019
173 1 464.696 325.271 -235.992
174 2 465.246 323.85 -237.512
175 2 463.661 323.565 -236.94
176 1 466.131 326.101 -236.075
177 2 464.06 326.065 -236.514
178 2 464.125 325.272 -235.013
179 1 465.976 327.209 -235.095
180 2 466.915 325.316 -236.052
181 2 466.435 326.507 -237.067
182 1 467.426 327.775 -234.981
183 2 465.23 327.998 -235.295
184 2 465.503 326.719 -234.147
185 1 467.531 329.362 -235.302
186 2 467.763 327.637 -233.916
187 2 468.049 327.227 -235.736
188 2 468.455 329.803 -234.979
189 2 467.196 329.549 -236.384
190 2 466.748 329.918 -234.75
191 1 -277.108 52.0199 -14.3905
192 1 -277.96 52.6698 -15.6364
193 2 -276.34 51.3668 -14.6922
194 2 -276.578 52.8382 -13.8288
195 2 -277.739 51.5663 -13.6553
196 1 -277.206 53.192 -16.8283
197 2 -278.68 51.8711 -15.868
198 2 -278.638 53.3876 -15.1593
199 1 -277.633 54.5669 -17.2253
200 2 -276.098 53.1516 -16.6631
201 2 -277.326 52.5549 -17.7004
202 1 -276.374 55.3776 -17.9937
203 2 -278.618 54.3847 -17.7826
204 2 -277.803 55.2378 -16.3638
205 1 -276.848 56.5749 -18.9652
206 2 -275.496 55.7272 -17.2539
207 2 -275.891 54.5966 -18.6235
208 1 -277.974 56.1706 -19.8701
209 2 -277.184 57.3977 -18.2688
210 2 -275.963 57.0269 -19.3741
211 1 -278.199 57.1202 -21.1241
212 2 -277.914 55.0762 -20.1082
213 2 -278.873 56.089 -19.3309
214 1 -277.922 56.351 -22.5517
215 2 -279.225 57.4833 -21.1046
216 2 -277.645 58.0216 -21.0465
217 1 -277.891 57.2484 -23.7674
218 2 -276.884 55.7721 -22.4878
219 2 -278.582 55.4648 -22.7362
220 1 -277.925 56.4486 -24.9996
221 2 -278.763 57.8337 -23.7922
222 2 -277.157 58.031 -23.6419
223 1 -276.649 56.6098 -25.9238
224 2 -278.025 55.4062 -24.7679
225 2 -278.781 56.7033 -25.6268
226 2 -276.38 57.6887 -26.1682
227 2 -275.815 56.366 -25.326
228 2 -276.674 55.9134 -26.7075
229 1 -295.306 78.7615 -258.945
230 1 -296.866 78.3948 -258.889
231 2 -295.011 79.5856 -258.322
232 2 -294.693 77.9089 -258.665
233 2 -294.988 78.8795 -260.042
234 1 -297.427 78.6007 -257.431
235 2 -297.38 78.9747 -259.713
236 2 -297.08 77.3707 -259.269
237 1 -298.902 78.4867 -257.312
238 2 -296.85 78.0459 -256.62
239 2 -297.15 79.6731 -257.223
240 1 -299.785 79.6359 -257.983
241 2 -299.164 77.5927 -257.85
242 2 -299.297 78.2796 -256.311
243 1 -301.241 78.9827 -257.944
244 2 -299.624 80.5245 -257.437
245 2 -299.523 79.8169 -259
246 1 -302.124 79.1491 -259.168
247 2 -301.356 77.8343 -257.958
248 2 -301.79 79.3914 -257.15
249 1 -303.403 78.4461 -258.945
250 2 -302.255 80.1905 -259.574
251 2 -301.53 78.7045 -260.022
252 1 -304.314 79.2209 -257.834
253 2 -304.023 78.3129 -259.884
254 2 -303.2 77.374 -258.656
255 1 -305.815 78.7587 -257.527
256 2 -303.819 79.0415 -256.853
257 2 -304.284 80.2606 -257.936
258 1 -306.784 79.595 -256.664
259 2 -306.321 78.5269 -258.481
260 2 -305.686 77.8375 -256.995
261 1 -306.932 81.0391 -257.33
262 2 -307.869 79.2134 -256.728
263 2 -306.447 79.6394 -255.63
264 2 -307.634 81.4946 -256.668
265 2 -305.968 81.6815 -257.284
266 2 -307.312 81.0661 -258.354
267 1 -188.872 261.354 -192.068
268 1 -188 261.162 -190.778
269 2 -189.128 260.46 -192.658
270 2 -189.81 261.932 -191.879
271 2 -188.235 262.053 -192.775