(written by ASE)

684 atoms
2 atom types

0.0                      18  xlo xhi
0.0                      18  ylo yhi
0.0                      18  zlo zhi

Masses

     1      12.010999999999997 # C
     2      1.0079999999999998 # H

Atoms # charge

     1   1 -0.239     -720.80882968013395      462.95480230944759       72.58428062491555
     2   1 -0.1801     -719.42573619152495      463.49815670000118      73.070508218353837
     3   2 0.081     -721.24417002638063      463.09962990608381      71.636521579542801
     4   2 0.081     -720.88214534132896      461.91709466033961      72.802253845061827
     5   2 0.081     -721.66724747549597      463.48054869137007      73.063055936029897
     6   1 -0.1793     -718.21673742086125      462.98637547717499      72.299980260009647
     7   2 0.0887     -719.30918626014227      464.59576728518897      72.823133545549979
     8   2 0.0887     -719.40483961241785       463.2990487572352      74.051987292769994
     9   1 -0.1792     -716.86222187372664      463.61340615800447      72.766054838707873
    10   2 0.0894     -718.39373931091666      461.88916357707956      72.078921470406016
    11   2 0.0894     -718.49269208169255      463.37056779645644      71.254366265438847
    12   1 -0.1797     -716.36138770393291      463.46375359544788      74.260639798072233
    13   2 0.0896     -715.99252215701631      463.27416244364974      72.074836756183259
    14   2 0.0896     -716.90349708388908      464.67873682358538      72.469194002501069
    15   1 -0.1794     -715.28592624954069      464.31225972220517      74.885881717025327
    16   2 0.0894     -717.26123394805222      463.67641531992126      74.921362749165027
    17   2 0.0894      -716.1579281962679      462.44214794680602      74.407204503483626
    18   1 -0.1789     -715.40629865667586      465.88753615830643      75.031089347774099
    19   2 0.0896     -714.82699159641982      464.06112852690569      75.838277407454981
    20   2 0.0896     -714.50754163394049      464.04455605457093      74.224849159471347
    21   1 -0.18     -714.00143226292835      466.56304811315078      74.690203580389095
    22   2 0.0899     -716.06016055605323      466.25034183980523      74.229149974975314
    23   2 0.0899     -715.85913546944528      466.21257651011285      75.900882636129964
    24   1 -0.1789     -713.58229811134549      467.65752340768637      75.719418073120224
    25   2 0.0893     -713.17702014195584      465.88884244809378      74.667574956208568
    26   2 0.0893     -713.98080915512151      466.82921215658098      73.664178739224937
    27   1 -0.1797     -714.16343473921609      468.92429385339278       75.33599943488106
    28   2 0.0898      -713.8230982912263      467.32066699939008      76.709933946676841
    29   2 0.0898     -712.57789758020817      467.89279570977408      75.801782012333774
    30   1 -0.1801     -713.67509455684672      469.62847345733121      74.075779597887532
    31   2 0.0892     -715.31488815130365      468.84475516302155      75.265604382924479
    32   2 0.0892     -714.15206134105313      469.64859173022825      76.234940665267715
    33   1 -0.2388     -712.25198780108042      470.09121217526922      74.262977097011728
    34   2 0.0887     -713.83965967072731      469.04314337616211      73.195934591089326
    35   2 0.0887     -714.24842116668765      470.46218788278753      73.957529024727691
    36   2 0.081     -711.61690410999574       469.3309757445482      74.700519321938316
    37   2 0.081     -711.61360863259756      470.46964454818311      73.519876960395223
    38   2 0.081     -712.16427080977178       470.7736745209445      75.077046243905855
    39   1 -0.239     -244.28457032158343     -420.90919611624815      379.59353485922736
    40   1 -0.1801      -245.6043637824815     -421.44162499270021      379.12392166370114
    41   2 0.081     -244.40187649501368      -420.0503608866303      380.09167562370942
    42   2 0.081     -244.02305325957127      -421.5955563994583       380.3597995965012
    43   2 0.081     -243.52758091959149     -420.70719810177081      378.76971581565442
    44   1 -0.1793     -245.98880670137706     -420.70738380603791      377.75056207681882
    45   2 0.0887      -245.6435379045067     -422.51265087953618      379.02642389544286
    46   2 0.0887     -246.37076853527864     -421.28498067924494      379.80846435368574
    47   1 -0.1792     -245.34064851437671     -421.48106198762599      376.44144920853961
    48   2 0.0894     -247.07886189006442     -420.67246908156926      377.67246408452411
    49   2 0.0894     -245.73523199015085     -419.61263421216609      377.83407116753204
    50   1 -0.1797     -243.95229352719764     -421.28993897913188       376.1053976101897
    51   2 0.0896     -245.38980555978196     -422.57171635345503      376.48221729622122
    52   2 0.0896     -245.93148336181835     -421.20726766161152      375.63069134575471
    53   1 -0.1794     -243.62456622388751     -421.97849372412372      374.75862551017786
    54   2 0.0894     -243.65144111057219     -420.28190822650657      375.99767037066283
    55   2 0.0894     -243.31466701603338     -421.59775586309524      376.94320321268901
    56   1 -0.1789     -242.17440740389603     -421.76874896463841      374.53036459574901
    57   2 0.0896      -243.7605085511193     -423.12543159330778      374.72646881480995
    58   2 0.0896      -244.2951629065237     -421.42350014652578      374.16548821146296
    59   1 -0.18     -241.31525912386985     -422.76915206397052      375.33743893248823
    60   2 0.0899     -241.84022476142763     -421.87462549095375      373.54233931241885
    61   2 0.0899     -241.92105721921374     -420.78394986344358      374.67905315845576
    62   1 -0.1789     -239.92154725010795     -423.19166697470797      374.73665284811005
    63   2 0.0893     -240.99368486147577     -422.31542195192026       376.2683604631232
    64   2 0.0893     -241.81434797400456     -423.70649294183249       375.7804375029292
    65   1 -0.1797     -240.00335329482965     -424.38836623614804       373.7688675609478
    66   2 0.0898     -239.43222391374022     -422.27998109081187      374.30896852485256
    67   2 0.0898     -239.32661999805276     -423.39252734193076      375.65414342344593
    68   1 -0.1801      -238.8719604911818     -425.36259952527053      373.66379068288722
    69   2 0.0892     -240.86955798142461     -424.87158209581287      374.12922985976604
    70   2 0.0892        -240.11345164973     -424.08414521501226      372.70918451622998
    71   1 -0.2388     -238.45189397506741     -426.14046159111967      374.93069803209437
    72   2 0.0887     -239.22967226142802     -426.15588846585234      372.95367633995409
    73   2 0.0887     -237.91619937472194     -424.92540891289366       372.9708368569469
    74   2 0.081     -238.36411995391194     -427.20298481057728      374.65774287163384
    75   2 0.081     -237.43833589955307     -425.94030474606592      375.21021495003879
    76   2 0.081     -238.95247212842352     -425.94149484451179      375.82527197412662
    77   1 -0.239     -132.29804531296583      330.15721464584703     -341.85468206256581
    78   1 -0.1801     -132.41263862337348       331.6347275424888     -341.34784767690951
    79   2 0.081     -131.19842922003005      329.96207498678945     -341.78669371533607
    80   2 0.081     -132.68208032728035      329.47570497621052     -341.13048970237583
    81   2 0.081     -132.74274310402677      329.92951020909538     -342.85366898011074
    82   1 -0.1793     -131.48480982028505      331.86173962773501     -340.15361366263159
    83   2 0.0887     -132.34869287487282      332.48153672384916     -342.03227443707027
    84   2 0.0887     -133.54348932887922      331.65244637551035     -341.05991151541065
    85   1 -0.1792     -131.52889794359095      333.30814291698215     -339.66311445388612
    86   2 0.0894     -131.96841464949495      331.21017154413386     -339.45583982385324
    87   2 0.0894     -130.40480238114844      331.56897444282561     -340.31354047418426
    88   1 -0.1797      -132.9975258488505      333.88529426180469     -339.34269243676005
    89   2 0.0896     -130.82668663433498      333.39550859554248     -338.83268371142151
    90   2 0.0896     -131.11891197234141      333.82327905381607     -340.50814421476196
    91   1 -0.1794     -132.92269150755158       335.3018798951814     -338.88020648647529
    92   2 0.0894     -133.61279309980441      333.77558869452218     -340.25825536250647
    93   2 0.0894      -133.5495032409749      333.10195559357464     -338.70279522133012
    94   1 -0.1789     -132.13432817026006      336.35328488337109     -339.74976244681847
    95   2 0.0896       -133.916743977322       335.7909815999202     -338.83862080179676
    96   2 0.0896       -132.421717992635      335.03373861227277     -337.82516466095916
    97   1 -0.18     -132.70673673539858      336.51680899437582     -341.09838553243657
    98   2 0.0899     -131.95402600771882      337.26601327517704     -339.15016941044314
    99   2 0.0899      -131.1213188860944       335.8590216741884     -339.91348198348442
   100   1 -0.1789     -131.73870654482931      336.96476527106654     -342.08185678585716
   101   2 0.0893     -133.09355646220149      335.54589335814353     -341.41185816122061
   102   2 0.0893     -133.53056396309697      337.22043826055437      -340.9635216809416
   103   1 -0.1797     -130.37757652577022      336.32998276439656     -342.21264333063237
   104   2 0.0898     -132.30610030781679      336.89751263870505     -343.00011475176825
   105   2 0.0898     -131.56232921916666      338.04725606040688     -341.89862876213061
   106   1 -0.1801     -129.67529588560149      336.66584577257026     -343.59633215525344
   107   2 0.0892      -129.6461790436187      336.67484822205552     -341.42601357678564
   108   2 0.0892     -130.45526246869173      335.27042463133512     -342.05038876700968
   109   1 -0.2388     -130.19214102017526      335.84077029929199     -344.72091459651904
   110   2 0.0887     -129.94399967800476      337.71369562781166     -343.74987659917173
   111   2 0.0887     -128.68191448190569      336.65807433382429     -343.60463088291891
   112   2 0.081     -129.72553171275698      336.22012268384788     -345.62952705935948
   113   2 0.081     -129.85161600613921      334.87440670993817     -344.59306682448653
   114   2 0.081     -131.24087367562561      335.92981414303262     -344.72521677704401
   115   1 -0.239      20.926075617723495     -485.57949076535061      78.509056452308926
   116   1 -0.1801      19.677869126132624     -484.68500341605591      78.175710511645988
   117   2 0.081      21.243044637927419     -486.10371558176575      77.642737237443896
   118   2 0.081      21.782769244521095     -485.02021370329771      78.964403857936006
   119   2 0.081      20.676989329744657     -486.18830043744924      79.320168457624462
   120   1 -0.1793      20.100960675161094     -483.26421601883709      77.907666155039848
   121   2 0.0887      19.232411318873112     -485.04043084192216      77.238372241611344
   122   2 0.0887      18.805135563956092     -484.85987245927083      78.879953212076472
   123   1 -0.1792      20.227562040142931     -482.45828061913863      79.216566099697715
   124   2 0.0894      21.220068773716349     -483.45143603037309      77.602617572996238
   125   2 0.0894      19.704064606116333     -482.72786998024759      77.034868610052087
   126   1 -0.1797      19.209107767157157     -481.32242130932548      79.365708664878213
   127   2 0.0896      19.998602018960206     -483.00404199651604      80.063368401474762
   128   2 0.0896      21.252112864175785     -481.95036656532119      79.235140555489608
   129   1 -0.1794      19.136560036816675     -480.38090992598234       78.16468629050415
   130   2 0.0894      18.308289312117282     -481.88435923864756      79.412212462116599
   131   2 0.0894      19.546969110536931     -480.70733522603314      80.309716384312708
   132   1 -0.1789      18.898270383232472     -478.86421631579452      78.456025759330245
   133   2 0.0896      20.073811585550587     -480.33638168618637      77.462825702881901
   134   2 0.0896      18.234399530229354     -480.74582671194298       77.65383863462597
   135   1 -0.18      17.892192085973335     -478.69172801592038      79.510332615072173
   136   2 0.0899      19.897351763520138     -478.39114641732181      78.828822111789208
   137   2 0.0899      18.913260448234752     -478.26976382655295      77.563400730530304
   138   1 -0.1789      17.846958955000481     -477.21844689205602      80.049964788853543
   139   2 0.0893      16.924162019310323      -479.0091537134424      78.933980721630988
   140   2 0.0893      17.954433616269242     -479.29641411366026      80.305960253519331
   141   1 -0.1797      17.225503675173989     -476.12029122967664      79.067946504020611
   142   2 0.0898      17.208132704263363     -477.23072483629011        80.9666752400978
   143   2 0.0898      18.845353670988722     -476.94401313599144      80.239920942134361
   144   1 -0.1801       15.71005772357891     -476.36630724235681      78.772955065795301
   145   2 0.0892      17.192025442828047     -475.16269178927405      79.553782098265842
   146   2 0.0892      17.800713814384263     -476.04379838655575      78.085390911583261
   147   1 -0.2388      15.649861751222824       -476.829754905198       77.26815215703337
   148   2 0.0887      15.438411100617854      -477.1579954906361      79.463748863300523
   149   2 0.0887      15.172905788686117      -475.4496011169835      79.049356293931467
   150   2 0.081      15.804673103678265     -477.91397962516788      77.070130895697631
   151   2 0.081      14.629464020945047     -476.65658173760642       77.10174993532533
   152   2 0.081      16.058366999384944     -476.13431833142289      76.538305743236663
   153   1 -0.239      466.92875904551192      324.87112655787581     -230.89019875777262
   154   1 -0.1801      465.73815468644307      323.88023960802263     -230.45821315054425
   155   2 0.081      467.64002495866407      324.27400696137596     -231.53314156751401
   156   2 0.081      466.55660477273136      325.52289619882703     -231.73931123313636
   157   2 0.081      467.40168618379221       325.5311686776725     -230.15656047114467
   158   1 -0.1793      465.05041859088965      323.32205602768391     -231.73881053594329
   159   2 0.0887      466.36192588673271      323.05738163970994     -230.12427657541238
   160   2 0.0887      465.12048967874682      323.93490443993119     -229.58094972204995
   161   1 -0.1792      465.87997145024156      323.07070556262448     -233.07241138235489
   162   2 0.0894      464.72735202839169      322.42180544507301     -231.26513626473593
   163   2 0.0894      464.28343776976914       323.9206694276304     -231.98149147641632
   164   1 -0.1797      465.14954216428293       322.2244056505869     -234.11692988545244
   165   2 0.0896      466.12781847089394      324.03968319950354       -233.445509561373
   166   2 0.0896      466.84363242678967      322.46212720600766      -232.8492765760104
   167   1 -0.1794      465.61372915203299      322.49165249292349     -235.55403279664864
   168   2 0.0894      465.52947651729681      321.23264798160216     -233.98656455664965
   169   2 0.0894      464.01807583251104      322.17216014466629     -233.95320727018421
   170   1 -0.1789      464.85300138909639      323.60501325299168      -236.2332434838348
   171   2 0.0896      466.64474135441299      322.60647388246798     -235.55985137453689
   172   2 0.0896      465.50308411176735      321.51518636960725     -236.06299678199417
   173   1 -0.18      464.95474130792149      324.92351659635932     -235.58804536145013
   174   2 0.0899      465.27310431044725      323.80293317796293     -237.21385014380974
   175   2 0.0899      463.74941861567925       323.2694732695735     -236.32287498704696
   176   1 -0.1789      466.16690870790086      325.74544257176285     -235.79421729768038
   177   2 0.0893      464.02985384602772       325.3288403946342      -235.9747940876648
   178   2 0.0893      464.79855603754635      325.04108110808016     -234.49745714802512
   179   1 -0.1797      466.03492867641722      327.14678249312794     -235.18591385523021
   180   2 0.0898      467.03465636565051      325.17956436252319     -235.66444691238513
   181   2 0.0898      466.02516688129612      325.89518565823397     -236.88078912746928
   182   1 -0.1801        467.094701501874      328.21262735497976     -235.51174068497559
   183   2 0.0892      465.07383714308867      327.53568776355309     -235.32187181413693
   184   2 0.0892      465.87290869802996      327.06745646468153     -234.07467136278851
   185   1 -0.2388      467.17240668579939      328.48507868285191     -236.92415570699632
   186   2 0.0887      466.93857393413919      329.19918431226284     -235.03727484401506
   187   2 0.0887      468.12390634740933      327.78853032354584     -235.21676858516619
   188   2 0.081       467.4143173321396      327.63035805976961     -237.37047218437377
   189   2 0.081      466.42501527505556      328.94471171391484     -237.50784355934678
   190   2 0.081      468.01861060538897       329.1828635541624     -237.09084640959071
   191   1 -0.239     -276.62257639577808      52.583838918273273     -13.852735712252583
   192   1 -0.1801     -277.45026166395701      52.446122453615672     -15.193421769543296
   193   2 0.081     -276.08255919787115      51.732453764075956     -13.497118222349922
   194   2 0.081     -275.88436179934064       53.42292553564068     -13.700625660022069
   195   2 0.081     -277.37722189095234      52.775361818391879       -13.1284718284655
   196   1 -0.1793     -276.81962670715114      53.013483633659916     -16.480283251364305
   197   2 0.0887     -277.79233290108357      51.522415695864936     -15.472200403595828
   198   2 0.0887     -278.43871859989457      53.105338302016243     -15.086181341815475
   199   1 -0.1792     -277.30235040552128      54.335078788152224     -17.183135424999161
   200   2 0.0894     -275.75166364088426      53.030032446673395     -16.313148119078782
   201   2 0.0894     -276.74613316079603      52.280226717957227     -17.215609599607287
   202   1 -0.1797     -276.26918431470494      55.245257547168173     -17.699422159477479
   203   2 0.0896     -277.94029247731777      54.237122647919435      -18.12945052918127
   204   2 0.0896     -277.97981842861026      54.917294213902515     -16.602374735941083
   205   1 -0.1794     -276.66947873746653      56.471548793593101     -18.491375536371521
   206   2 0.0894     -275.64793530153224      55.491361640315908       -16.7992943166423
   207   2 0.0894       -275.606300329286      54.615438856684655     -18.263712212189986
   208   1 -0.1789     -277.09975039058105      55.974459631133811     -19.857034369168836
   209   2 0.0896     -277.46230723096488      56.938682330086763     -17.881389664354728
   210   2 0.0896     -275.84569780535054      57.133915374908128     -18.596035329871057
   211   1 -0.18     -276.75289468497436      56.914317620194105     -21.055391759241125
   212   2 0.0899     -276.58332413912143      55.041802889138346     -20.149088190301185
   213   2 0.0899     -278.25759074277408      55.856958612745785     -19.811951823721948
   214   1 -0.1789     -277.30532167207599      56.236349271380071      -22.36438026693812
   215   2 0.0893     -277.27796782964168      57.813398197431454     -20.840199436979464
   216   2 0.0893     -275.63082971608253       56.99318712079068     -21.120817153362669
   217   1 -0.1797     -277.88454912885061      57.334809962596594     -23.232338345975339
   218   2 0.0898     -276.47554999001306      55.609947781114037     -22.784592309992277
   219   2 0.0898      -278.0902196770507      55.531346412559742     -22.078048275887653
   220   1 -0.1801     -277.91170586479836      56.938312058769171      -24.70534682317745
   221   2 0.0892     -278.74706348995068       57.64020194502173     -22.677263450172845
   222   2 0.0892       -277.290595636148      58.233869066617352     -23.089006429766577
   223   1 -0.2388     -276.55367401056822      56.717760143289773     -25.360956790328629
   224   2 0.0887     -278.45017727317042       56.03500505025665     -24.899520986400166
   225   2 0.0887     -278.26482136117471      57.751078017675198     -25.385508010956578
   226   2 0.081      -275.8658247648026      57.457421511574488      -24.97268223624944
   227   2 0.081     -276.18450616727853      55.695439177724985     -25.173982065014194
   228   2 0.081     -276.64894129779969      56.840174690948636     -26.410323445761225
   229   1 -0.239     -295.56576422442038      78.508255531333873     -259.51442839889995
   230   1 -0.1801     -297.03990865894235      78.654043902872672     -259.11046043013391
   231   2 0.081     -295.01602876375142       79.46018422535758     -259.54490818032491
   232   2 0.081       -294.920560474149      77.923505689388151     -258.85836700965706
   233   2 0.081     -295.58823852078399      78.153357599429029     -260.52098701967128
   234   1 -0.1793     -297.32930063799563      78.950423497409929     -257.63157197022241
   235   2 0.0887       -297.385752694921      79.521735278241735     -259.75282124799821
   236   2 0.0887     -297.47800846931307      77.716433249979616     -259.48642993278048
   237   1 -0.1792     -298.80813910572738      78.894482187780525     -257.37615072731631
   238   2 0.0894     -296.82322455819497      78.150322950017284     -257.11842637764357
   239   2 0.0894     -296.85108643296547      79.821432110384052      -257.2870645894219
   240   1 -0.1797     -299.74672094506786      79.774664057894427     -258.12460855055917
   241   2 0.0896      -299.0509920424438      77.849984299349984     -257.42287851280702
   242   2 0.0896     -298.66644297440939      79.107987217724457     -256.27700119929892
   243   1 -0.1794     -301.24211605794062      79.379102202583056     -257.88000694692056
   244   2 0.0894     -299.51138212169298      80.858622973439807     -257.95697603692366
   245   2 0.0894     -299.55434196819368      79.653938025688916     -259.20828841545233
   246   1 -0.1789     -302.06798705387899      79.457271591459715     -259.19342777102958
   247   2 0.0896     -301.27101899195543      78.324846593511225     -257.68590946758246
   248   2 0.0896     -301.57086198842887      80.170238650386906     -257.21556864293035
   249   1 -0.18     -303.41792137671223       78.77983453987261     -259.13691523427872
   250   2 0.0899     -302.28796355790485      80.460999718580808     -259.48865747470472
   251   2 0.0899     -301.44923464028687      78.968611103913105     -259.98641506803148
   252   1 -0.1789     -304.25496589989797      79.433591451828548     -257.99376156355106
   253   2 0.0893     -303.81254351285759       78.95246077885605     -260.04936964048665
   254   2 0.0893     -303.22432182366657      77.686991431598003     -259.21587789096179
   255   1 -0.1797     -305.77289505557081      79.243360189172591     -258.20882049951655
   256   2 0.0898     -303.99539114165066      78.940983017068717     -257.06356237182962
   257   2 0.0898     -304.06095951701826      80.481223001157289     -257.76485917558006
   258   1 -0.1801     -306.60215001893647      79.757574188944005     -256.95555850295972
   259   2 0.0892     -305.96356811639038      79.927497188849728     -259.07959118361453
   260   2 0.0892     -306.02238188497637      78.198966416454709     -258.49456814295883
   261   1 -0.2388     -306.74440127150268      81.297737159587783      -256.8951926059699
   262   2 0.0887     -307.61293177710638      79.387408012355422     -256.92984186015786
   263   2 0.0887     -306.21925971527668      79.397695172976142     -256.01242435801498
   264   2 0.081     -307.46890293678035      81.664274522849738     -256.05898705786962
   265   2 0.081     -305.82642363348629      81.894628449836475     -256.75059792712671
   266   2 0.081     -307.14572234469654      81.707133970147353      -257.8794383113916
   267   1 -0.239     -188.92357488698752      261.66591410480532     -191.42940796548993
   268   1 -0.1801     -187.47541784459321      261.59335949324986     -190.85749065107004
   269   2 0.081     -189.71925473741231      261.12232579747058      -190.9877674710751
   270   2 0.081     -189.26316805089624      262.59837536960401     -191.12621910435786
   271   2 0.081     -188.97923039831576      261.32176232684435     -192.46865379065625
   272   1 -0.1793     -186.85755402659188      260.12330887719691     -190.98921691532388
   273   2 0.0887     -186.73813706410664      262.17583382517478     -191.37035628341997
   274   2 0.0887     -187.51805231392979      261.96510479971073     -189.83968228954984
   275   1 -0.1792     -185.47041289684901      260.07683909310691     -190.29082265258324
   276   2 0.0894     -187.53715803835098      259.37634104737265     -190.60927365377702
   277   2 0.0894       -186.683425820433      259.84548682062643     -192.00944811331533
   278   1 -0.1797     -184.55670130655946      258.85765624742891     -190.62403821295416
   279   2 0.0896      -184.8686862467712      261.03464438925039     -190.36882315814955
   280   2 0.0896     -185.70470562872333      260.08146017274572     -189.24935722165554
   281   1 -0.1794     -185.05370083626991      257.59483393427132     -189.90628876885694
   282   2 0.0894     -184.44574806354629      258.74023987247796     -191.82104529630197
   283   2 0.0894     -183.63040102441354      258.96397345012156     -190.27169613851078
   284   1 -0.1789      -184.1588645391619      256.33632500942167     -190.02707649740631
   285   2 0.0896     -185.22045565485328      257.79242849614366     -188.86826506551904
   286   2 0.0896     -186.05912352715373      257.30358222108157     -190.23130470785696
   287   1 -0.18     -182.66599134865007      256.36893229504187     -189.62992807553769
   288   2 0.0899     -184.66918820131559      255.41359168242158     -189.62690244805376
   289   2 0.0899     -184.03057942314499      256.16685101779819     -191.09328147730088
   290   1 -0.1789     -182.14866445685897      257.19876933203716     -188.37124660055497
   291   2 0.0893     -182.33618014309025      255.29867899455007     -189.62764418897962
   292   2 0.0893     -182.13387011170585      256.88890620988087     -190.42965490404976
   293   1 -0.1797     -182.74749036920304      256.74549121028849     -187.08761533649371
   294   2 0.0898     -181.09878585568697      257.17527641027363     -188.28233549656744
   295   2 0.0898     -182.29844263656992      258.23010959680551     -188.52805770540448
   296   1 -0.1801     -182.66096877624614      255.27101095641609     -186.56581037005265
   297   2 0.0892     -182.49320901832144      257.48847112254577       -186.414829163923
   298   2 0.0892     -183.75621759783999      256.76569117550116     -187.30147563280514
   299   1 -0.2388     -183.31743250928648      255.00523813276251     -185.20078127472087
   300   2 0.0887     -183.09440143256316      254.57553257853161     -187.25800609379516
   301   2 0.0887     -181.56961216666028       255.0763595075118     -186.43044673645659
   302   2 0.081     -184.40471614266193       255.1652825300896     -185.15487830464053
   303   2 0.081     -183.07221821973906      253.99247467952395     -185.06940529944205
   304   2 0.081     -182.90516145437485        255.595845572564     -184.44354298365658
   305   1 -0.239     -968.10450366008979     -49.388842938874973      122.04582198785307
   306   1 -0.1801     -968.99031019651056     -50.542467062051514      121.80189699536662
   307   2 0.081     -968.69887477986117     -48.470564879454699       122.0234107741579
   308   2 0.081     -967.62260934169922     -49.332753932440305      123.02047908892411
   309   2 0.081     -967.23605068296558     -49.384198548813103      121.32279493970469
   310   1 -0.1793     -969.64005098772623     -50.683901385535151      120.42099849067139
   311   2 0.0887     -968.42541977978578     -51.505549993005971      121.99914202710498
   312   2 0.0887      -969.8071932086832     -50.541142260045028      122.57181894981898
   313   1 -0.1792     -970.64692370297962     -51.691751699852404      120.29739903590263
   314   2 0.0894     -970.24561800291815     -49.826671940351098      120.28538766999739
   315   2 0.0894     -968.90592651731765     -50.757119200076247       119.6695719559148
   316   1 -0.1797     -971.10019896459949      -52.10060275419626      118.88561314481862
   317   2 0.0896      -970.3043830641061     -52.610476065971284      120.64787434927884
   318   2 0.0896     -971.43819792462625     -51.444642383259094       120.9574083804456
   319   1 -0.1794     -972.00734423884069     -53.251592953641421      118.84055605178231
   320   2 0.0894     -971.50361033709464     -51.184330259569904      118.46802376594977
   321   2 0.0894     -970.25753682325319     -52.453309461927311      118.23076658309346
   322   1 -0.1789     -972.37732912881677     -53.641975420964016      117.39182597804168
   323   2 0.0896     -971.57184691506654     -54.176300802899632      119.19691199056135
   324   2 0.0896     -972.88031599208432     -52.937018708097625      119.41807438717831
   325   1 -0.18     -973.81223030923866      -54.28390726611584       117.3081163257888
   326   2 0.0899     -972.30122857797403     -52.806088127853087      116.77539689912128
   327   2 0.0899     -971.71686318416323     -54.327738685664187      116.91115080472596
   328   1 -0.1789     -974.24182497438187     -54.342285737856159      115.83397218911703
   329   2 0.0893     -973.98155244390364     -55.244957511747664      117.89475450710925
   330   2 0.0893     -974.44065558168381     -53.458220109827067      117.82180750312149